<?xml version="1.0"?>
<VTKFile type="UnstructuredGrid" version="0.1" byte_order="LittleEndian">
<UnstructuredGrid>
<Piece NumberOfPoints="1881" NumberOfCells="448">
<Points>
<DataArray type="Float64" NumberOfComponents="3" format="ascii">
0.02 0.0 0.0 0.024999999999999998 0.0 0.0 0.025 0.005 0.0 0.02 0.005000000000000001 0.0 0.0225 0.0 0.0 0.024999999999999998 0.0025 0.0 0.0225 0.004999999999999999 0.0 0.02 0.0024999999999999996 0.0 0.0225 0.0025000000000000005 0.0 0.03 0.0 0.0 0.03 0.005 0.0 0.027499999999999997 0.0 0.0 0.03 0.0025 0.0 0.027500000000000004 0.005 0.0 0.0275 0.0025 0.0 0.035 0.0 0.0 0.035 0.005 0.0 0.032499999999999994 0.0 0.0 0.035 0.0025 0.0 0.0325 0.005000000000000001 0.0 0.0325 0.0024999999999999996 0.0 0.04 0.0 0.0 0.039999999999999994 0.005000000000000001 0.0 0.0375 0.0 0.0 0.04 0.0024999999999999996 0.0 0.0375 0.005 0.0 0.0375 0.0025000000000000005 0.0 0.025 0.009999999999999998 0.0 0.019999999999999997 0.009999999999999998 0.0 0.025 0.007499999999999999 0.0 0.0225 0.010000000000000002 0.0 0.02 0.007500000000000001 0.0 0.022500000000000003 0.0075 0.0 0.03 0.01 0.0 0.03 0.0075 0.0 0.027499999999999997 0.009999999999999998 0.0 0.027499999999999997 0.007499999999999999 0.0 0.035 0.009999999999999998 0.0 0.034999999999999996 0.007499999999999998 0.0 0.032499999999999994 0.01 0.0 0.032499999999999994 0.007499999999999999 0.0 0.04 0.009999999999999998 0.0 0.04000000000000001 0.007500000000000001 0.0 0.0375 0.009999999999999998 0.0 0.0375 0.0075000000000000015 0.0 0.025 0.015 0.0 0.02 0.015 0.0 0.025 0.0125 0.0 0.022500000000000003 0.015 0.0 0.02 0.0125 0.0 0.022500000000000003 0.012500000000000002 0.0 0.03 0.015 0.0 0.03 0.0125 0.0 0.027499999999999997 0.015000000000000001 0.0 0.027500000000000004 0.0125 0.0 0.035 0.015 0.0 0.035 0.0125 0.0 0.0325 0.015 0.0 0.0325 0.0125 0.0 0.039999999999999994 0.015 0.0 0.04000000000000001 0.0125 0.0 0.0375 0.015000000000000001 0.0 0.037500000000000006 0.0125 0.0 0.025 0.02 0.0 0.02 0.02 0.0 0.025 0.0175 0.0 0.0225 0.02 0.0 0.02 0.0175 0.0 0.022500000000000003 0.0175 0.0 0.03 0.02 0.0 0.03 0.0175 0.0 0.0275 0.02 0.0 0.027499999999999997 0.0175 0.0 0.035 0.02 0.0 0.035 0.0175 0.0 0.0325 0.02 0.0 0.0325 0.0175 0.0 0.04 0.02 0.0 0.04 0.0175 0.0 0.037500000000000006 0.02 0.0 0.0375 0.0175 0.0 0.025 0.025 0.0 0.019999999999999997 0.025 0.0 0.025 0.0225 0.0 0.022500000000000003 0.025 0.0 0.02 0.0225 0.0 0.0225 0.0225 0.0 0.03 0.025 0.0 0.03 0.0225 0.0 0.0275 0.025 0.0 0.027499999999999997 0.0225 0.0 0.035 0.024999999999999998 0.0 0.035 0.022500000000000003 0.0 0.0325 0.025 0.0 0.0325 0.0225 0.0 0.04 0.025 0.0 0.04 0.0225 0.0 0.037500000000000006 0.025 0.0 0.037500000000000006 0.0225 0.0 0.025 0.03 0.0 0.02 0.03 0.0 0.025 0.027500000000000004 0.0 0.0225 0.03 0.0 0.020000000000000004 0.027500000000000004 0.0 0.022500000000000003 0.0275 0.0 0.03 0.03 0.0 0.03 0.0275 0.0 0.027499999999999997 0.03 0.0 0.027500000000000004 0.027500000000000004 0.0 0.035 0.03 0.0 0.035 0.027500000000000004 0.0 0.032499999999999994 0.03 0.0 0.0325 0.0275 0.0 0.039999999999999994 0.03 0.0 0.04 0.027500000000000004 0.0 0.0375 0.03 0.0 0.037500000000000006 0.027500000000000004 0.0 0.025 0.035 0.0 0.019999999999999997 0.035 0.0 0.025 0.0325 0.0 0.0225 0.035 0.0 0.020000000000000004 0.0325 0.0 0.0225 0.0325 0.0 0.03 0.035 0.0 0.03 0.0325 0.0 0.0275 0.035 0.0 0.027499999999999997 0.0325 0.0 0.035 0.035 0.0 0.034999999999999996 0.0325 0.0 0.0325 0.035 0.0 0.032499999999999994 0.0325 0.0 0.04 0.035 0.0 0.04 0.0325 0.0 0.0375 0.034999999999999996 0.0 0.0375 0.0325 0.0 0.024999999999999998 0.039999999999999994 0.0 0.02 0.04 0.0 0.024999999999999998 0.0375 0.0 0.0225 0.04 0.0 0.02 0.0375 0.0 0.0225 0.037500000000000006 0.0 0.03 0.04 0.0 0.03 0.0375 0.0 0.027499999999999997 0.04 0.0 0.027500000000000004 0.0375 0.0 0.034999999999999996 0.04 0.0 0.034999999999999996 0.0375 0.0 0.032499999999999994 0.039999999999999994 0.0 0.0325 0.0375 0.0 0.04 0.04 0.0 0.04 0.0375 0.0 0.0375 0.039999999999999994 0.0 0.0375 0.0375 0.0 0.04500000000000001 0.0 0.0 0.045 0.005 0.0 0.042499999999999996 0.0 0.0 0.045 0.0025000000000000005 0.0 0.042499999999999996 0.004999999999999999 0.0 0.042499999999999996 0.0024999999999999996 0.0 0.05 0.0 0.0 0.05 0.004999999999999999 0.0 0.0475 0.0 0.0 0.049999999999999996 0.0024999999999999996 0.0 0.0475 0.004999999999999999 0.0 0.0475 0.0025000000000000005 0.0 0.05500000000000001 0.0 0.0 0.055 0.005 0.0 0.052500000000000005 0.0 0.0 0.05500000000000001 0.0025 0.0 0.052500000000000005 0.005 0.0 0.052500000000000005 0.0025000000000000005 0.0 0.06000000000000001 0.0 0.0 0.06 0.005000000000000001 0.0 0.05750000000000001 0.0 0.0 0.060000000000000005 0.0024999999999999996 0.0 0.057499999999999996 0.005000000000000001 0.0 0.0575 0.002499999999999999 0.0 0.065 0.0 0.0 0.065 0.005000000000000001 0.0 0.0625 0.0 0.0 0.06500000000000002 0.0024999999999999996 0.0 0.0625 0.005000000000000001 0.0 0.0625 0.0025 0.0 0.07 0.0 0.0 0.07 0.005 0.0 0.06750000000000002 0.0 0.0 0.06999999999999999 0.0025 0.0 0.0675 0.005 0.0 0.06750000000000002 0.0025 0.0 0.075 0.0 0.0 0.07500000000000001 0.005000000000000001 0.0 0.07250000000000001 0.0 0.0 0.07500000000000001 0.0025 0.0 0.07250000000000001 0.005 0.0 0.07250000000000001 0.0025 0.0 0.08 0.0 0.0 0.08 0.004999999999999999 0.0 0.0775 0.0 0.0 0.08000000000000002 0.002500000000000001 0.0 0.07750000000000001 0.005000000000000001 0.0 0.0775 0.0025 0.0 0.08499999999999999 0.0 0.0 0.08499999999999999 0.004999999999999999 0.0 0.0825 0.0 0.0 0.08499999999999999 0.0025000000000000005 0.0 0.08250000000000002 0.005 0.0 0.0825 0.0024999999999999996 0.0 0.09 0.0 0.0 0.09 0.005000000000000001 0.0 0.0875 0.0 0.0 0.09000000000000001 0.0025 0.0 0.0875 0.005 0.0 0.0875 0.0025 0.0 0.09499999999999999 0.0 0.0 0.095 0.005000000000000001 0.0 0.0925 0.0 0.0 0.095 0.0024999999999999996 0.0 0.09250000000000001 0.004999999999999999 0.0 0.0925 0.0024999999999999996 0.0 0.1 0.0 0.0 0.09999999999999999 0.005000000000000001 0.0 0.0975 0.0 0.0 0.09999999999999999 0.002500000000000001 0.0 0.09750000000000002 0.005000000000000001 0.0 0.0975 0.0025000000000000005 0.0 0.04500000000000001 0.01 0.0 0.045000000000000005 0.0075 0.0 0.04250000000000001 0.01 0.0 0.0425 0.0075000000000000015 0.0 0.05 0.010000000000000002 0.0 0.05 0.0075000000000000015 0.0 0.0475 0.010000000000000002 0.0 0.0475 0.0075 0.0 0.05500000000000001 0.009999999999999998 0.0 0.05500000000000001 0.007499999999999999 0.0 0.05249999999999999 0.009999999999999998 0.0 0.052500000000000005 0.0075 0.0 0.060000000000000005 0.009999999999999998 0.0 0.06000000000000001 0.007500000000000002 0.0 0.05750000000000001 0.010000000000000002 0.0 0.05750000000000001 0.007500000000000001 0.0 0.065 0.010000000000000002 0.0 0.065 0.0075000000000000015 0.0 0.0625 0.009999999999999998 0.0 0.06250000000000001 0.007500000000000001 0.0 0.07 0.01 0.0 0.07 0.007499999999999999 0.0 0.0675 0.01 0.0 0.0675 0.0075000000000000015 0.0 0.07500000000000001 0.010000000000000002 0.0 0.075 0.007500000000000001 0.0 0.07250000000000001 0.01 0.0 0.07250000000000001 0.007500000000000001 0.0 0.08000000000000002 0.009999999999999998 0.0 0.08000000000000002 0.0075000000000000015 0.0 0.07750000000000001 0.009999999999999998 0.0 0.07750000000000001 0.007500000000000001 0.0 0.085 0.010000000000000002 0.0 0.085 0.007500000000000001 0.0 0.0825 0.01 0.0 0.08249999999999999 0.0075 0.0 0.09000000000000001 0.010000000000000002 0.0 0.09 0.007500000000000001 0.0 0.0875 0.01 0.0 0.0875 0.007499999999999999 0.0 0.09499999999999999 0.01 0.0 0.09499999999999999 0.0075 0.0 0.0925 0.009999999999999998 0.0 0.0925 0.0075000000000000015 0.0 0.09999999999999999 0.009999999999999998 0.0 0.1 0.007500000000000001 0.0 0.09750000000000002 0.010000000000000002 0.0 0.09750000000000002 0.0075000000000000015 0.0 0.04500000000000001 0.015000000000000003 0.0 0.045000000000000005 0.0125 0.0 0.0425 0.015 0.0 0.0425 0.0125 0.0 0.05 0.014999999999999998 0.0 0.05 0.012499999999999999 0.0 0.0475 0.015 0.0 0.0475 0.012500000000000002 0.0 0.05500000000000001 0.015 0.0 0.05500000000000001 0.0125 0.0 0.0525 0.015000000000000001 0.0 0.0525 0.0125 0.0 0.06000000000000001 0.015000000000000003 0.0 0.06 0.0125 0.0 0.0575 0.015 0.0 0.05750000000000001 0.012500000000000002 0.0 0.065 0.014999999999999998 0.0 0.065 0.012499999999999997 0.0 0.0625 0.015000000000000001 0.0 0.0625 0.012499999999999999 0.0 0.07 0.015 0.0 0.07 0.012500000000000002 0.0 0.0675 0.015000000000000003 0.0 0.0675 0.012499999999999997 0.0 0.07500000000000001 0.015 0.0 0.07500000000000001 0.0125 0.0 0.07250000000000001 0.015000000000000003 0.0 0.07250000000000001 0.012499999999999999 0.0 0.08000000000000002 0.015000000000000005 0.0 0.08 0.012499999999999999 0.0 0.07750000000000001 0.015 0.0 0.07750000000000001 0.012499999999999999 0.0 0.08499999999999999 0.015000000000000003 0.0 0.08499999999999999 0.012499999999999999 0.0 0.08249999999999999 0.014999999999999998 0.0 0.0825 0.0125 0.0 0.09000000000000001 0.015 0.0 0.09000000000000001 0.012500000000000002 0.0 0.0875 0.015000000000000003 0.0 0.0875 0.012499999999999997 0.0 0.095 0.015000000000000001 0.0 0.09499999999999999 0.012499999999999999 0.0 0.0925 0.015 0.0 0.09250000000000001 0.012500000000000004 0.0 0.1 0.015000000000000003 0.0 0.1 0.0125 0.0 0.09750000000000002 0.015000000000000001 0.0 0.09749999999999999 0.0125 0.0 0.045000000000000005 0.02 0.0 0.045000000000000005 0.0175 0.0 0.0425 0.019999999999999997 0.0 0.042499999999999996 0.017499999999999995 0.0 0.05000000000000001 0.02 0.0 0.05 0.0175 0.0 0.0475 0.02 0.0 0.0475 0.0175 0.0 0.055 0.02 0.0 0.05500000000000001 0.0175 0.0 0.05249999999999999 0.02 0.0 0.0525 0.017499999999999998 0.0 0.060000000000000005 0.020000000000000004 0.0 0.06 0.0175 0.0 0.05750000000000001 0.02 0.0 0.057499999999999996 0.017499999999999998 0.0 0.065 0.02 0.0 0.065 0.017499999999999995 0.0 0.0625 0.019999999999999997 0.0 0.06250000000000001 0.0175 0.0 0.07 0.02 0.0 0.07 0.0175 0.0 0.0675 0.02 0.0 0.0675 0.0175 0.0 0.075 0.02 0.0 0.075 0.0175 0.0 0.07250000000000001 0.02 0
[...]
<PointData Scalars="TheScalars">
<DataArray type="Float64" Name="T" NumberOfComponents="1" format="ascii">
273.15 273.15 281.16923492461075 281.31108149872796 273.15 277.1417017545433 281.27403200431235 277.21150770015475 277.19327900227165 273.15 280.79157406270775 273.15 276.95564713066176 281.00539966670675 277.0610244363823 273.15 280.24792421486165 273.15 276.6873154528957 280.5362414171118 276.8296940604368 273.15 279.6026912344991 273.15 276.3681220661183 279.934322780237 276.53227219618617 289.4813573166602 289.784082432884 285.2694038075602 289.70493335861454 285.48793563377325 285.4308338519237 288.6790749961252 284.6886436721583 289.13264508952403 285.01726693502974 287.53336628549164 283.8553122303731 288.13966463897725 284.29687250141814 286.1864535669768 282.87008239137526 286.87708258074053 283.3759716234873 298.4154980230238 298.9244752348101 293.84745690160463 298.79112835602837 294.24540008212443 294.141269458305 297.07893616948877 292.79689321801766 297.83235862103817 293.39009949511495 295.19947093013565 291.30645401498094 296.1899794318696 292.09379024106045 293.0286410012685 289.567618807887 294.1369065556004 290.45751926137433 308.3850120221377 309.19283638741615 303.23976405616935 308.98030578894304 303.8820643197402 303.71353181683264 306.2997268774025 301.5651597387561 307.4688861546751 302.5070083936224 303.44602725976694 299.23765955086174 304.9393931190505 300.46053944244545 300.2441904375188 296.5835194131939 301.8675352742031 297.9343509998042 319.9657073119834 321.2702476135311 313.9280100486693 320.92319074329095 314.94798982667453 314.6789331926534 316.71082886323546 311.3308324672487 318.5167947289778 312.780914759839 312.46567615673234 307.84852579561914 314.6609682025973 309.6614999371354 307.9149249180463 304.01985781621823 310.1984158761703 305.9519343202306 334.0383680451157 336.34312115698975 326.61565037313693 335.70163952639564 328.3163342549192 327.8623843433735 328.72905708009927 322.49348619378054 331.6092748424639 324.76193221949404 322.39060168120363 317.31215982588077 325.60408839689876 319.96869470604184 316.04774400665553 311.92783775616806 319.184756624804 314.6115513600874 352.0018646152693 357.1779025666318 342.40683274360447 355.4172642387983 345.654905729766 344.7574304278729 342.6409368711701 335.44764011080196 347.4591779947435 339.1591316414023 333.15703308422695 327.68617885577146 337.82210226409944 331.56798710648064 324.5094857562532 320.25329392337267 328.7109835398135 323.8978410904586 374.7123123765989 395.8900694818911 362.7915489560094 384.63829972308156 371.38850090012556 368.7086015014813 357.94638826630194 350.2055553463514 365.8756767625779 356.4607388630216 344.2957722403188 338.7289799882878 350.78948166884015 344.2788119337695 332.97043350486484 328.76846431603946 338.37995272978003 333.5646992266315 273.15 278.9095887890916 273.15 276.0244612596173 279.259274434925 276.19794124468444 273.15 278.20876046435984 273.15 275.6762471574287 278.5581638895621 275.8499359274556 273.15 277.52711593754566 273.15 275.3369696737136 277.8643183729664 275.504873843512 273.15 276.880603846539 273.15 275.0147222281272 277.1988224205108 275.173385629789 273.15 276.27704671275757 273.15 274.7135504003547 276.5732119298283 274.8613719154439 273.15 275.71872155972835 273.15 274.43471034471236 275.9922469276803 274.571340928077 273.15 275.20438211609604 273.15 274.1776705871966 275.4562277652305 274.30354777782287 273.15 274.7307095077918 273.15 273.94083866817977 274.9627229550452 274.05685554341625 273.15 274.2932944047895 273.15 273.7220571408665 274.5077700188891 273.8293394000496 273.15 273.88727565986835 273.15 273.5189282171203 274.08667083795626 273.6186896604546 273.15 273.50774470326974 273.15 273.3290205359341 273.69450107361286 273.42247150050264 273.15 273.15 273.15 273.15 273.3264305959724 273.2382892576878 284.7532370974819 281.81585268965256 285.474697081484 282.347241798817 283.3162372721272 280.75358442333504 284.0312661166098 281.28275801069526 281.928397647994 279.72341814163826 282.6138497609218 280.23269110832126 280.61950028817375 278.74864803720607 281.26293566576453 279.2281841159417 279.4029360769956 277.8403192560304 279.9993193856608 278.2858528724404 278.28133806749776 277.00125265766 278.8304025796382 277.41218535043953 277.2507413789618 276.22911942545636 277.7550880752001 276.6071041477661 276.30344387998497 275.51860742287806 276.7672542257031 275.8665681824386 275.4298820045625 274.86286820929763 275.85808312111857 275.18435314356816 274.6198189483726 274.25444772450254 275.0175591481123 274.55321665243986 273.86307924054114 273.68586983818415 274.23540539862773 273.9656369483415 273.15 273.15 273.5016588115995 273.4142730412917 290.7573944069441 287.731045323056 291.8961851888053 288.65393120924836 288.5130927238641 285.90152413325836 289.62611520345 286.810513044211 286.3710867105345 284.1439666067536 287.42621043010143 285.01098175102834 284.3696148818659 282.49333592272984 285.35147604025934 283.3040018038904 282.52259494169164 280.96412322780134 283.4266063046398 281.71323279243035 280.8289977253497 279.55777283355 281.6570825655712 280.2458577195121 279.2791845711803 278.2679440754583 280.0369390041912 278.89889263232186 277.8589911136183 277.08402282108756 278.5538749615918 277.66351126125306 276.5522716624359 275.99337110539324 277.1924906670463 276.5278681190134 275.3424408707309 274.98272422062655 275.9362744044473 275.4788775660602 274.21338583594076 274.0390381886069 274.76879143432905 274.5033045015723 273.15 273.15 273.6743815733384 273.58842138476217 296.9800620172536 293.838950685884 298.6070036783405 295.21135073882317 293.82236022743024 291.15325459257355 295.3809559618123 292.48225933134336 290.85810747721234 288.6096595358096 292.31291100641914 289.86045399220046 288.1231685491971 286.24701702056825 289.4611052369666 287.404536209697 285.6233237628584 284.0765157894353 286.84427838977786 285.1377955411147 283.34758439745934 282.09307699210325 284.4585450283537 283.06215261925365 281.2762730487201 280.2826677006586 282.2878055743262 281.1673393673949 279.38581253005873 278.6268307303124 280.3099835084601 279.43667633772884 277.6515047071011 277.105416096693 278.5006839265244 277.8506016590603 276.0491011349815 275.6981861643071 276.83529075085414 276.3887719931074 274.5556604769216 274.38573411376586 275.2901328679058 275.03128073037374 273.15 273.15 273.8431085767223 273.7593469971489 303.4435957629852 300.18239135990245 305.6542496100465 302.0878923138263 299.2374477238433 296.51864361481984 301.30092093054225 298.3217933888332 295.37023772609746 293.1133264317073 297.2596178447117 294.78096944212683 291.85668523241696 289.99464031261186 293.5697493718442 291.5178320525377 288.6816303860337 287.15974368170555 290.2284866942111 288.5426632694504 285.81570972862323 284.58961894546263 287.21216925697644 285.8431540823688 283.22375181962644 282.2575684588669 284.48778139338845 283.39566404908703 280.8692460331053 280.1340064552531 282.01908713251237 281.1716135811853 278.7166690306004 278.1891126997744 279.7698685843342 279.1410608020393 276.7326328986469 276.39425490149335 277.70557596617084 277.2746547997159 274.8863898158889 274.7227099277684 275.79410470184365 275.5446573962655 273.15 273.15 274.00610283035144 273.9254415223537 310.109789056648 306.75695212680137 313.0159667823839 309.30110435658423 304.70860070064185 301.97118513953296 307.33954907150746 304.3108834758307 299.8589340794134 297.6218573753781 302.21629085205404 299.74147787481303 295.527166077037 293.70332560740036 297.6313695689733 295.6103582669356 291.66115053635093 290.18404431812746 293.5395147101835 291.8962964286514 288.2035586432106 287.021873533216 289.8849100661668 288.5611418909248 285.0978983803106 284.1716922489034 286.6101628557683 285.5606133973904 282.2911370847647 281.589156526258 283.6603116717723 282.84966244295623 279.7346929223429 279.2324746971042 280.9844879405136 280.3850794066416 277.38463403984446 277.0631477181311 278.5364399281679 278.12666809904584 275.20150484153214 275.0461748225536 276.2745087430768 276.03767376916306 273.15 273.15 274.16135856657905 274.08483370753754 316.852525656098 313.4834978198779 320.5584948599774 316.7784566042692 310.1321040667485 307.43503827630394 313.38149142717253 310.3703077928524 304.24230365109605 302.0702101431739 307.09053085448124 304.6711957797141 299.0707422085208 297.3195947494993 301.5735845823877 299.6229364672025 294.5123269371541 293.10636189122323 296.7210687819294 295.15060899492977 290.47293457867414 289.35574322407825 292.4332092771669 291.1777176691415 286.8696742911014 285.99858454101627 288.62156671713745 287.63206045305105 283.6299969194649 282.9724043057507 285.2085636118454 284.44777472144165 280.69047357580126 280.22137679449236 282.12636874909566 281.56574631559255 277.99555422151315 277.6958647745896 279.3156430821391 278.93331652093025 275.49642400420925 275.35179234202184 276.7243387266279 276.5037104308268 273.15 273.15 274.3066226017473 274.23538860051013 323.44570021509645 320.1854626897871 328.0090719780769 324.3174830206564 315.35007532977664 312.77843171492685 319.238359656486 316.3473096285956 308.40748615761134 306.360200513112 311.7492223201295 309.45644973298835 302.4051338525655 300.76979434301194 305.30023049188725 303.47060423565745 297.1743819722315 295.87113004678855 299.70251533454615 298.2416555564313 292.5787179420416 291.54929814497916 294.8047026492846 293.6445907036925 288.50576342853753 287.706883821195 290.48316519839847 289.57367575270354 284.86172019024934 284.26082932138684 286.63539675888484 285.939029418328 281.5673521366361 281.13985813020764 283.17530935719884 282.6637740788311 278.5549818526328 278.2823773982087 280.02977196383966 279.68171075871635 275.76618701391624 275.6347694879428 277.1359873852815 276.93542634036567 273.15 273.15 274.43945966453833 274.37475121346165 396.8300301944914 434.0010993391357 386.48518453919365 413.26038729781317 420.2416569247114 400.41856096906724 372.68182205785 365.54497714058846 383.7092376691834 375.1451578803681 354.898080143691 349.72867488852444 363.20248309178095 357.1617971120123 340.9362434030046 337.0487903794607 347.5323627547016 343.06626169634586 412.9977210629879 453.0141249090283 405.6800608544987 431.16101501054794 444.7684183133486 423.1673237306011 384.8679220460564 379.1589431695525 397.7935404617396 391.2767138468139 364.042063716455 359.6953352622617 373.74286709952815 368.7602560180018 347.90222112650304 344.5711009817211 355.4971564343181 351.69706927729754 424.0171870177284 464.98796551782834 419.055970063185 442.85237575963157 459.6562326564507 437.62085667666867 393.9563476256557 389.79347725124603 407.88610577279707 403.2999180157611 371.2184454907638 367.8906105212165 381.8407689771928 378.1056137907012 353.50739418884234 350.8900842435418 361.84152386423364 358.8876460374618 431.19159220116507 472.58885684353737 428.0287129949659 450.337057708255 469.25238009365523 447.0470481374478 400.1494401934133 397.39520101410784 414.6091640741772 411.6325713019115 376.2945923607837 374.01873671387614 387.4727398673899 384.95718328496264 357.56590828171545 355.7360822685488 366.3891645453211 364.34387700620664 435.25568894954074 476.8493428260885 433.5830165795988 454.54511886766556 475.0992823743004 452.8156299444737 403.7377371146795 402.2543764404687 418.4586466285636 416.87103436294524 379.30197252904475 378.0529962809289 390.7743133663309 389.40621116033344 360.00998231694865 358.9912913064456 369.10779591265435 367.97652409864696 436.57363729016043 478.22525133687117 436.24593746259114 455.9056425584293 477.88340640584124 455.56754657423954 404.9124741761219 404.61985575041854 419.71249591256026 419.4004737204437 380.29663271447026 380.04837773920195 391.86086849143476 391.58994053340143 360.82494362259376 360.621209273218 370.0109292398972 369.7853211967734 435.25568894954125 476.8493428260893 436.2459374625915 454.5451188676665 477.8834064058418 455.56754657424 403.73773711467965 404.6198557504186 418.4586466285641 419.40047372044387 379.30197252904486 380.04837773920195 390.77431336633094 391.5899405334013 360.0099823169486 360.621209273218 369.1077959126543 369.78532119677345 431.19159220116603 472.5888568435383 433.5830165795997 450.33705770825594 475.0992823743014 452.81562994447467 400.1494401934141 402.25437644046923 414.60916407417807 416.871034362946 376.29459236078407 378.05299628092916 387.47273986739043 389.4062111603338 357.5659082817158 358.9912913064456 366.38916454532136 367.97652409864713 424.0171870177303 464.98796551782993 428.0287129949673 442.8523757596333 469.25238009365654 447.04704813744905 393.9563476256573 397.39520101410903 407.8861057727987 411.63257130191295 371.2184454907649 374.01873671387693 381.8407689771941 384.9571832849636 353.50739418884314 355.73608226854935 361.8415238642346 364.3438770062074 412.9977210629901 453.0141249090303 419.0559700631869 431.16101501055 459.65623265645274 437.62085667667066 384.8679220460586 389.7934772512481 397.7935404617419 403.2999180157632 364.04206371645654 367.8906105212178 373.74286709953014 378.1056137907029 347.9022211265043 350.89008424354273 355.4971564343194 358.88764603746296 396.8300301944934 434.0010993391377 405.6800608545009 413.2603872978149 444.76841831335076 423.167323730603 372.6818220578521 379.1589431695548 383.7092376691856 391.2767138468162 354.89808014369277 359.6953352622635 363.202483091783 368.7602560180038 340.9362434030065 344.5711009817226 347.53236275470334 351.697069277299 374.71231237660044 395.8900694818923 386.4851845391953 384.63829972308275 420.2416569247127 400.41856096906855 357.9463882663038 365.54497714059045 365.8756767625795 375.14515788037 344.29577224032073 349.7286748885262 350.7894816688419 357.16179711201414 332.970433504867 337.04879037946273 338.37995272978213 343.06626169634774 329.58987916533175 326.59381685479127 334.9871402973696 331.58268329127003 320.1676146536397 317.82170051713945 324.67034423281615 322.02329669874314 312.2213047027553 310.36698930408505 316.03205228238977 313.9481025918451 305.43633601130415 303.9647110030533 308.69977959569496 307.0481283827302 299.57960157139127 298.41344341278324 302.4042186078957 301.09346519931927 294.4716629574842 293.5549355587565 296.9416744384106 295.9061964604766 289.9704184215734 289.26178535205634 292.15295683624606 291.3447065872855 285.9608011918067 285.4294480465863 287.910512952503 287.29383372333365 282.34789377353695 281.97075844784905 284.1100592023968 283.6582937590719 279.05210586990216 278.8120074072457 280.6648488934787 280.35806680761937 276.00566770350196 275.89003228785714 277.501577435367 277.3250313710362 273.15 273.15 274.5573560395707 274.50043209248946 334.97795545922054 332.3958707917073 341.1031631659133 338.1744482355608 324.38447320714835 322.3628886706671 329.4311773905835 327.14891367406824 315.5471041586907 313.953376915596 319.77435308086785 317.98053997018496 308.06827436845003 306.8080090251621 311.6579860277565 310.2409176188215 301.6591970530501 300.66426738861566 304.74501837986224 303.62463907441764 296.1021022192012 295.3227045774001 298.7856986041786 297.90384451488524 291.22785830715117 290.6272050232092 293.58874104747895 292.902655065741 286.90189374118916 286.4526262736662 289.00369739274936 288.4816728409977 283.0148802807754 282.69661863441763 284.9095695698858 284.52798867924093 279.4763003891838 279.27395820147046 281.20710560069904 280.9484083291901 276.20984276472365 276.1124700868129 277.8133799303323 277.66466649754193 273.15 273.15 274.6578503244838 274.6099262020421 339.360894276204 337.30726866059564 346.0574019846985 343.73930822385086 327.8269801590877 326.21169636450634 333.3132857888329 331.4926975230794 318.261912692678 316.98764740811714 322.83024668950253 321.39598940903505 310.21278122286543 309.2064157735089 314.07085922975415 312.9383835486481 303.349447976185 302.5566173537122 306.65001106387854 305.7562327549863 297.42387961251103 296.8042162288166 300.28253540240064 299.5806134292599 292.2448412998869 291.76831473181096 294.7512940000563 294.20642056307855 287.6614984385756 287.3057314447822 289.8869043369462 289.4731583403594 283.55238967459275 283.30073351201474 285.55435061437 285.25242024587607 279.81776279535256 279.65793537604407 281.64382629802975 281.4393875701701 276.37408558887466 276.2972209369168 278.0642713547313 277.9468479978537 273.15 273.15 274.7386764638895 274.7008517987935 342.5747752037981 341.12100115467115 349.6712027901805 348.0388026301682 330.3660630652505 329.2156231487927 336.17008260098424 334.8765551881641 320.26812703567515 319.3585255782265 325.08714875722103 324.0641299844041 311.7972779591634 311.07880868351407 315.85411655661727 315.04552164661425 304.5968450469142 304.03133459146477 308.05682283793533 307.4189669866911 298.39783572577386 297.956425865686 301.38636089712617 300.88601176171034 292.9930337913957 292.65405582894294 295.6072430841155 295.21938040084297 288.21955606822746 287.96679858123935 290.5362046695868 290.2420777068733 283.9468323946704 283.76822517018917 286.02776454352664 285.813372975936 280.06813224460603 279.95478379939254 281.9641614051633 281.8191255586095 276.49445258585604 276.43996563722044 278.24817807252754 278.1649244375375 273.15 273.15 274.79790329457217 274.7710936391684 344.52975061875605 343.71301561251846 351.85995966855523 350.94648609613023 331.9188226662634 331.2692789453914 337.91331648678886 337.18448977169686 321.4978357631193 320.98311936050214 326.46932806112494 325.8909273814855 312.7690113520577 312.362201065384 316.94762884540614 316.48986050881877 305.36154048831713 305.0414202863817 308.9194827155284 308.55833670110627 298.99441974096214 298.744713534744 302.06278816421616 301.7796386949769 293.45090655123687 293.2592955771843 296.1313023579551 295.91197256545036 288.5607751818507 288.4180077060245 290.9333802911721 290.76718554712187 284.187835946237 284.087014738927 286.31711796742536 286.19606124429544 280.2210253225267 280.15707158787427 282.15982796105294 282.07797817556576 276.5679330191704 276.5371990311445 278.36046297030714 278.313497196465 273.15 273.15 274.83405652312337 274.81893531358236 345.18514535853274 345.0211218294754 352.59199649890456 352.4088805641489 332.4409735276926 332.3102133189276 338.49876525370865 338.3521930282004 321.9119558128588 321.80821708388595 326.9345292307975 326.8180088340431 313.09640934643477 313.0143859596088 317.31600350198323 317.223717432069 305.61916478765596 305.55462221439427 309.21013492157357 309.137316962206 299.1953414109993 299.14500758216093 302.290642047663 302.2335593322042 293.60504749404237 293.5664360363835 296.3077623567671 296.26355827335857 288.6755979355562 288.64683778098055 291.06705963890727 291.03357507379883 284.26890699870467 284.2486021828123 286.414469524694 286.3900863446313 280.27244344283923 280.2595660818667 282.2256386965127 282.2091564017157 276.5926405910706 276.58645292531105 278.3982209740448 278.3887648834365 273.15 273.15 274.84621244300035 274.8431681874427 344.5297506187558 345.0211218294754 351.8599596685551 352.40888056414894 331.91882266626305 332.3102133189275 337.9133164867887 338.3521930282004 321.4978357631192 321.8082170838858 326.4693280611247 326.818008834043 312.7690113520577 313.0143859596089 316.94762884540603 317.2237174320691 305.36154048831696 305.5546222143942 308.9194827155283 309.13731696220606 298.9944197409619 299.14500758216076 302.062788164216 302.233559332204 293.45090655123647 293.56643603638344 296.13130235795484 296.2635582733584 288.5607751818502 288.64683778098015 290.9333802911716 291.03357507379854 284.18783594623676 284.2486021828121 286.317117967425 286.390086344631 280.2210253225266 280.2595660818667 282.1598279610527 282.20915640171563 276.56793301917037 276.58645292531105 278.3604629703072 278.3887648834364 273.15 273.15 274.83405652312337 274.84316818744276 342.5747752037979 343.71301561251823 349.67120279018036 350.9464860961299 330.36606306525033 331.26927894539114 336.17008260098396 337.1844897716965 320.2681270356751 320.98